version 3
run Wireless02-0-20240326-22:14:07-19116
attr configname Wireless02
attr datetime 20240326-22:14:07
attr datetimef 20240326-221407
attr experiment Wireless02
attr inifile omnetpp.ini
attr iterationvars ""
attr iterationvarsd ""
attr iterationvarsf ""
attr measurement ""
attr network WirelessA
attr processid 19116
attr repetition 0
attr replication #0
attr resultdir results
attr runnumber 0
attr seedset 0
config image-path ../../inet4.5/images
config description "Setting up some animations"
config extends Wireless01
config *.hostA.wlan[0].radio.displayCommunicationRange true
config *.visualizer.sceneVisualizer.descriptionFigure "\"title\""
config *.visualizer.mediumVisualizer.displaySignals true
config *.visualizer.physicalLinkVisualizer.displayLinks true
config *.visualizer.physicalLinkVisualizer.packetFilter "\"UDPData*\""
config description "Two hosts communicating wirelessly"
config network WirelessA
config sim-time-limit 20s
config *.host*.ipv4.arp.typename GlobalArp
config *.hostA.numApps 1
config *.hostA.app[0].typename UdpBasicApp
config *.hostA.app[0].destAddresses "\"hostB\""
config *.hostA.app[0].destPort 5000
config *.hostA.app[0].messageLength 1000B
config *.hostA.app[0].sendInterval exponential(12ms)
config *.hostA.app[0].packetName "\"UDPData\""
config *.hostB.numApps 1
config *.hostB.app[0].typename UdpSink
config *.hostB.app[0].localPort 5000
config *.host*.wlan[0].typename AckingWirelessInterface
config *.host*.wlan[0].mac.useAck false
config *.host*.wlan[0].mac.fullDuplex false
config *.host*.wlan[0].radio.transmitter.communicationRange 500m
config *.host*.wlan[0].radio.receiver.ignoreInterference true
config *.host*.wlan[0].mac.headerLength 23B
config *.host*.**.bitrate 1Mbps

vector 0 WirelessA.hostA.udp passedUpPk:vector(count) ETV
attr interpolationmode none
attr recordingmode vector(count)
attr source packetSentToUpper
attr title "packets passed up, count"
vector 1 WirelessA.hostA.udp droppedPkWrongPort:vector(count) ETV
attr interpolationmode none
attr recordingmode vector(count)
attr source packetDropReasonIsNoPortFound(packetDropped)
attr title "packets dropped (wrong port), count"
vector 2 WirelessA.hostA.udp droppedPkBadChecksum:vector(count) ETV
attr interpolationmode none
attr recordingmode vector(count)
attr source packetDropReasonIsIncorrectlyReceived(packetDropped)
attr title "packets dropped (checksum error), count"
vector 3 WirelessA.hostB.udp passedUpPk:vector(count) ETV
attr interpolationmode none
attr recordingmode vector(count)
attr source packetSentToUpper
attr title "packets passed up, count"
vector 4 WirelessA.hostB.udp droppedPkWrongPort:vector(count) ETV
attr interpolationmode none
attr recordingmode vector(count)
attr source packetDropReasonIsNoPortFound(packetDropped)
attr title "packets dropped (wrong port), count"
vector 5 WirelessA.hostB.udp droppedPkBadChecksum:vector(count) ETV
attr interpolationmode none
attr recordingmode vector(count)
attr source packetDropReasonIsIncorrectlyReceived(packetDropped)
attr title "packets dropped (checksum error), count"
vector 6 WirelessA.hostA.wlan[0].radio radioMode:vector ETV
attr interpolationmode sample-hold
attr recordingmode vector
attr source radioModeChanged
attr title "Radio mode"
vector 7 WirelessA.hostB.wlan[0].radio radioMode:vector ETV
attr interpolationmode sample-hold
attr recordingmode vector
attr source radioModeChanged
attr title "Radio mode"
vector 8 WirelessA.hostA.wlan[0].radio receptionState:vector ETV
attr interpolationmode sample-hold
attr recordingmode vector
attr source receptionStateChanged
attr title "Radio reception state"
vector 9 WirelessA.hostB.wlan[0].radio receptionState:vector ETV
attr interpolationmode sample-hold
attr recordingmode vector
attr source receptionStateChanged
attr title "Radio reception state"
vector 10 WirelessA.hostA.app[0] packetSent:vector(packetBytes) ETV
attr interpolationmode none
attr recordingmode vector(packetBytes)
attr source packetSent
attr title "packets sent, packetBytes"
vector 11 WirelessA.hostA.udp packetSent:vector(packetBytes) ETV
attr interpolationmode none
attr recordingmode vector(packetBytes)
attr source packetSent
attr title "packets sent, packetBytes"
vector 12 WirelessA.hostA.wlan[0].queue incomingPacketLengths:vector ETV
attr interpolationmode none
attr recordingmode vector
attr source packetLength(packetPushStarted)
attr title "incoming packet lengths"
attr unit b
vector 13 WirelessA.hostA.wlan[0].queue queueingTime:vector ETV
attr interpolationmode none
attr recordingmode vector
attr source queueingTime(packetPulled)
attr title "queueing times"
attr unit s
vector 14 WirelessA.hostA.wlan[0].queue outgoingPacketLengths:vector ETV
attr interpolationmode none
attr recordingmode vector
attr source packetLength(packetPulled)
attr title "outgoing packet lengths"
attr unit b
vector 15 WirelessA.hostA.wlan[0].mac rcvdPkFromHl:vector(packetBytes) ETV
attr interpolationmode none
attr recordingmode vector(packetBytes)
attr source packetReceivedFromUpper
attr title "packets received from higher layer, packetBytes"
vector 16 WirelessA.hostA.wlan[0].radio transmissionState:vector ETV
attr interpolationmode sample-hold
attr recordingmode vector
attr source transmissionStateChanged
attr title "Radio transmission state"
vector 17 WirelessA.hostA.wlan[0].mac sentDownPk:vector(packetBytes) ETV
attr interpolationmode none
attr recordingmode vector(packetBytes)
attr source packetSentToLower
attr title "packets sent to lower layer, packetBytes"
vector 18 WirelessA.hostA.wlan[0].queue queueLength:vector ETV
attr autoWarmupFilter false
attr interpolationmode sample-hold
attr recordingmode vector
attr source "warmup(atomic(constant0(packetPushEnded) + count(packetPushStarted) - count(packetPulled) - count(packetRemoved) - count(packetDropped)))"
attr title "queue length"
attr unit pk
vector 19 WirelessA.hostA.wlan[0].queue queueBitLength:vector ETV
attr autoWarmupFilter false
attr interpolationmode sample-hold
attr recordingmode vector
attr source "warmup(atomic(constant0(packetPushEnded) + sum(packetLength(packetPushStarted)) - sum(packetLength(packetPulled)) - sum(packetLength(packetRemoved)) - sum(packetLength(packetDropped))))"
attr title "queue bit length"
attr unit b
vector 20 WirelessA.hostB.wlan[0].mac rcvdPkFromLl:vector(packetBytes) ETV
attr interpolationmode none
attr recordingmode vector(packetBytes)
attr source packetReceivedFromLower
attr title "packets received from lower layer, packetBytes"
vector 21 WirelessA.hostB.wlan[0].mac passedUpPk:vector(packetBytes) ETV
attr interpolationmode none
attr recordingmode vector(packetBytes)
attr source packetSentToUpper
attr title "packets passed to higher layer, packetBytes"
vector 22 WirelessA.hostB.udp packetReceived:vector(packetBytes) ETV
attr interpolationmode none
attr recordingmode vector(packetBytes)
attr source packetReceived
attr title "packets received, packetBytes"
vector 23 WirelessA.hostB.app[0] packetReceived:vector(packetBytes) ETV
attr interpolationmode none
attr recordingmode vector(packetBytes)
attr source packetReceived
attr title "packets received, packetBytes"
vector 24 WirelessA.hostB.app[0] endToEndDelay:vector ETV
attr interpolationmode none
attr recordingmode vector
attr source dataAge(packetReceived)
attr title "end-to-end delay"
attr unit s
vector 25 WirelessA.hostB.app[0] rcvdPkSeqNo:vector ETV
attr interpolationmode none
attr recordingmode vector
attr source appPkSeqNo(packetReceived)
attr title "received packet sequence number"
vector 26 WirelessA.hostA.wlan[0].queue incomingDataRate:vector ETV
attr interpolationmode linear
attr recordingmode vector
attr source throughput(packetPushStarted)
attr title "incoming datarate"
attr unit bps
vector 27 WirelessA.hostA.wlan[0].queue outgoingDataRate:vector ETV
attr interpolationmode linear
attr recordingmode vector
attr source throughput(packetPulled)
attr title "outgoing datarate"
attr unit bps
vector 28 WirelessA.hostB.app[0] throughput:vector ETV
attr recordingmode vector
attr source throughput(packetReceived)
attr title throughput
attr unit bps
0	0	0	0
1	0	0	0
2	0	0	0
3	0	0	0
3	21	0.030820584801	1
3	27	0.039324584801	2
3	47	0.049891078249	3
3	53	0.058395078249	4
3	67	0.083479601676	5
3	86	0.123258549035	6
3	92	0.131762549035	7
3	106	0.147888527705	8
3	118	0.156920617065	9
3	132	0.1669938113	10
3	159	0.19817286033	11
3	167	0.20667686033	12
3	180	0.21518086033	13
3	189	0.22368486033	14
3	202	0.23218886033	15
3	209	0.24069286033	16
3	223	0.26439915813	17
3	236	0.31054182056	18
4	0	0	0
5	0	0	0
6	0	0	0
6	0	0	0
6	0	0	2
6	8	0.022315250545	3
6	15	0.030819250545	2
6	15	0.030819250545	3
6	23	0.039323250545	2
6	33	0.041385743993	3
6	41	0.049889743993	2
6	41	0.049889743993	3
6	49	0.058393743993	2
6	60	0.07497426742	3
6	63	0.08347826742	2
6	73	0.114753214779	3
6	80	0.123257214779	2
6	80	0.123257214779	3
6	88	0.131761214779	2
6	98	0.139383193449	3
6	102	0.147887193449	2
6	111	0.148415282809	3
6	114	0.156919282809	2
6	124	0.158488477044	3
6	128	0.166992477044	2
6	138	0.189667526074	3
6	153	0.198171526074	2
6	153	0.198171526074	3
6	161	0.206675526074	2
6	161	0.206675526074	3
6	174	0.215179526074	2
6	174	0.215179526074	3
6	183	0.223683526074	2
6	183	0.223683526074	3
6	196	0.232187526074	2
6	196	0.232187526074	3
6	205	0.240691526074	2
6	216	0.255893823874	3
6	219	0.264397823874	2
6	229	0.302036486304	3
6	232	0.310540486304	2
7	0	0	0
7	0	0	0
7	0	0	2
8	0	0	1
8	8	0.022315250545	0
8	15	0.030819250545	1
8	15	0.030819250545	0
8	23	0.039323250545	1
8	33	0.041385743993	0
8	41	0.049889743993	1
8	41	0.049889743993	0
8	49	0.058393743993	1
8	60	0.07497426742	0
8	63	0.08347826742	1
8	73	0.114753214779	0
8	80	0.123257214779	1
8	80	0.123257214779	0
8	88	0.131761214779	1
8	98	0.139383193449	0
8	102	0.147887193449	1
8	111	0.148415282809	0
8	114	0.156919282809	1
8	124	0.158488477044	0
8	128	0.166992477044	1
8	138	0.189667526074	0
8	153	0.198171526074	1
8	153	0.198171526074	0
8	161	0.206675526074	1
8	161	0.206675526074	0
8	174	0.215179526074	1
8	174	0.215179526074	0
8	183	0.223683526074	1
8	183	0.223683526074	0
8	196	0.232187526074	1
8	196	0.232187526074	0
8	205	0.240691526074	1
8	216	0.255893823874	0
8	219	0.264397823874	1
8	229	0.302036486304	0
8	232	0.310540486304	1
9	0	0	1
9	10	0.022316584801	3
9	17	0.030820584801	2
9	18	0.030820584801	3
9	24	0.039324584801	1
9	35	0.041387078249	3
9	43	0.049891078249	2
9	44	0.049891078249	3
9	50	0.058395078249	1
9	62	0.074975601676	3
9	64	0.083479601676	1
9	75	0.114754549035	3
9	82	0.123258549035	2
9	83	0.123258549035	3
9	89	0.131762549035	1
9	100	0.139384527705	3
9	103	0.147888527705	1
9	113	0.148416617065	3
9	115	0.156920617065	1
9	126	0.1584898113	3
9	129	0.1669938113	1
9	140	0.18966886033	3
9	155	0.19817286033	2
9	156	0.19817286033	3
9	163	0.20667686033	2
9	164	0.20667686033	3
9	176	0.21518086033	2
9	177	0.21518086033	3
9	185	0.22368486033	2
9	186	0.22368486033	3
9	198	0.23218886033	2
9	199	0.23218886033	3
9	206	0.24069286033	1
9	218	0.25589515813	3
9	220	0.26439915813	1
9	231	0.30203782056	3
9	233	0.31054182056	1
10	4	0.022315250545	1000
10	11	0.028927832385	1000
10	30	0.041385743993	1000
10	36	0.048291974356	1000
10	57	0.07497426742	1000
10	70	0.114753214779	1000
10	76	0.120556440038	1000
10	95	0.139383193449	1000
10	108	0.148415282809	1000
10	121	0.158488477044	1000
10	135	0.189667526074	1000
10	141	0.19055175034	1000
10	145	0.191645682653	1000
10	149	0.191890789714	1000
10	170	0.213340641675	1000
10	192	0.231410052779	1000
10	213	0.255893823874	1000
10	226	0.302036486304	1000
11	6	0.022315250545	1008
11	12	0.028927832385	1008
11	31	0.041385743993	1008
11	37	0.048291974356	1008
11	58	0.07497426742	1008
11	71	0.114753214779	1008
11	77	0.120556440038	1008
11	96	0.139383193449	1008
11	109	0.148415282809	1008
11	122	0.158488477044	1008
11	136	0.189667526074	1008
11	142	0.19055175034	1008
11	146	0.191645682653	1008
11	150	0.191890789714	1008
11	171	0.213340641675	1008
11	193	0.231410052779	1008
11	214	0.255893823874	1008
11	227	0.302036486304	1008
12	8	0.022315250545	8224
12	14	0.028927832385	8224
12	33	0.041385743993	8224
12	39	0.048291974356	8224
12	60	0.07497426742	8224
12	73	0.114753214779	8224
12	79	0.120556440038	8224
12	98	0.139383193449	8224
12	111	0.148415282809	8224
12	124	0.158488477044	8224
12	138	0.189667526074	8224
12	144	0.19055175034	8224
12	148	0.191645682653	8224
12	152	0.191890789714	8224
12	173	0.213340641675	8224
12	195	0.231410052779	8224
12	216	0.255893823874	8224
12	229	0.302036486304	8224
13	8	0.022315250545	0
13	15	0.030819250545	0.00189141816
13	33	0.041385743993	0
13	41	0.049889743993	0.001597769637
13	60	0.07497426742	0
13	73	0.114753214779	0
13	80	0.123257214779	0.002700774741
13	98	0.139383193449	0
13	111	0.148415282809	0
13	124	0.158488477044	0
13	138	0.189667526074	0
13	153	0.198171526074	0.007619775734
13	161	0.206675526074	0.015029843421
13	174	0.215179526074	0.02328873636
13	183	0.223683526074	0.010342884399
13	196	0.232187526074	0.000777473295
13	216	0.255893823874	0
13	229	0.302036486304	0
14	8	0.022315250545	8224
14	15	0.030819250545	8224
14	33	0.041385743993	8224
14	41	0.049889743993	8224
14	60	0.07497426742	8224
14	73	0.114753214779	8224
14	80	0.123257214779	8224
14	98	0.139383193449	8224
14	111	0.148415282809	8224
14	124	0.158488477044	8224
14	138	0.189667526074	8224
14	153	0.198171526074	8224
14	161	0.206675526074	8224
14	174	0.215179526074	8224
14	183	0.223683526074	8224
14	196	0.232187526074	8224
14	216	0.255893823874	8224
14	229	0.302036486304	8224
15	8	0.022315250545	1028
15	15	0.030819250545	1028
15	33	0.041385743993	1028
15	41	0.049889743993	1028
15	60	0.07497426742	1028
15	73	0.114753214779	1028
15	80	0.123257214779	1028
15	98	0.139383193449	1028
15	111	0.148415282809	1028
15	124	0.158488477044	1028
15	138	0.189667526074	1028
15	153	0.198171526074	1028
15	161	0.206675526074	1028
15	174	0.215179526074	1028
15	183	0.223683526074	1028
15	196	0.232187526074	1028
15	216	0.255893823874	1028
15	229	0.302036486304	1028
16	8	0.022315250545	1
16	9	0.022315250545	2
16	15	0.030819250545	1
16	15	0.030819250545	0
16	15	0.030819250545	1
16	16	0.030819250545	2
16	23	0.039323250545	1
16	23	0.039323250545	0
16	33	0.041385743993	1
16	34	0.041385743993	2
16	41	0.049889743993	1
16	41	0.049889743993	0
16	41	0.049889743993	1
16	42	0.049889743993	2
16	49	0.058393743993	1
16	49	0.058393743993	0
16	60	0.07497426742	1
16	61	0.07497426742	2
16	63	0.08347826742	1
16	63	0.08347826742	0
16	73	0.114753214779	1
16	74	0.114753214779	2
16	80	0.123257214779	1
16	80	0.123257214779	0
16	80	0.123257214779	1
16	81	0.123257214779	2
16	88	0.131761214779	1
16	88	0.131761214779	0
16	98	0.139383193449	1
16	99	0.139383193449	2
16	102	0.147887193449	1
16	102	0.147887193449	0
16	111	0.148415282809	1
16	112	0.148415282809	2
16	114	0.156919282809	1
16	114	0.156919282809	0
16	124	0.158488477044	1
16	125	0.158488477044	2
16	128	0.166992477044	1
16	128	0.166992477044	0
16	138	0.189667526074	1
16	139	0.189667526074	2
16	153	0.198171526074	1
16	153	0.198171526074	0
16	153	0.198171526074	1
16	154	0.198171526074	2
16	161	0.206675526074	1
16	161	0.206675526074	0
16	161	0.206675526074	1
16	162	0.206675526074	2
16	174	0.215179526074	1
16	174	0.215179526074	0
16	174	0.215179526074	1
16	175	0.215179526074	2
16	183	0.223683526074	1
16	183	0.223683526074	0
16	183	0.223683526074	1
16	184	0.223683526074	2
16	196	0.232187526074	1
16	196	0.232187526074	0
16	196	0.232187526074	1
16	197	0.232187526074	2
16	205	0.240691526074	1
16	205	0.240691526074	0
16	216	0.255893823874	1
16	217	0.255893823874	2
16	219	0.264397823874	1
16	219	0.264397823874	0
16	229	0.302036486304	1
16	230	0.302036486304	2
16	232	0.310540486304	1
16	232	0.310540486304	0
17	8	0.022315250545	1051
17	15	0.030819250545	1051
17	33	0.041385743993	1051
17	41	0.049889743993	1051
17	60	0.07497426742	1051
17	73	0.114753214779	1051
17	80	0.123257214779	1051
17	98	0.139383193449	1051
17	111	0.148415282809	1051
17	124	0.158488477044	1051
17	138	0.189667526074	1051
17	153	0.198171526074	1051
17	161	0.206675526074	1051
17	174	0.215179526074	1051
17	183	0.223683526074	1051
17	196	0.232187526074	1051
17	216	0.255893823874	1051
17	229	0.302036486304	1051
18	8	0.022315250545	0
18	14	0.028927832385	1
18	15	0.030819250545	0
18	33	0.041385743993	0
18	39	0.048291974356	1
18	41	0.049889743993	0
18	60	0.07497426742	0
18	73	0.114753214779	0
18	79	0.120556440038	1
18	80	0.123257214779	0
18	98	0.139383193449	0
18	111	0.148415282809	0
18	124	0.158488477044	0
18	138	0.189667526074	0
18	144	0.19055175034	1
18	148	0.191645682653	2
18	152	0.191890789714	3
18	153	0.198171526074	2
18	161	0.206675526074	1
18	173	0.213340641675	2
18	174	0.215179526074	1
18	183	0.223683526074	0
18	195	0.231410052779	1
18	196	0.232187526074	0
18	216	0.255893823874	0
18	229	0.302036486304	0
19	8	0.022315250545	0
19	14	0.028927832385	8224
19	15	0.030819250545	0
19	33	0.041385743993	0
19	39	0.048291974356	8224
19	41	0.049889743993	0
19	60	0.07497426742	0
19	73	0.114753214779	0
19	79	0.120556440038	8224
19	80	0.123257214779	0
19	98	0.139383193449	0
19	111	0.148415282809	0
19	124	0.158488477044	0
19	138	0.189667526074	0
19	144	0.19055175034	8224
19	148	0.191645682653	16448
19	152	0.191890789714	24672
19	153	0.198171526074	16448
19	161	0.206675526074	8224
19	173	0.213340641675	16448
19	174	0.215179526074	8224
19	183	0.223683526074	0
19	195	0.231410052779	8224
19	196	0.232187526074	0
19	216	0.255893823874	0
19	229	0.302036486304	0
20	19	0.030820584801	1051
20	25	0.039324584801	1051
20	45	0.049891078249	1051
20	51	0.058395078249	1051
20	65	0.083479601676	1051
20	84	0.123258549035	1051
20	90	0.131762549035	1051
20	104	0.147888527705	1051
20	116	0.156920617065	1051
20	130	0.1669938113	1051
20	157	0.19817286033	1051
20	165	0.20667686033	1051
20	178	0.21518086033	1051
20	187	0.22368486033	1051
20	200	0.23218886033	1051
20	207	0.24069286033	1051
20	221	0.26439915813	1051
20	234	0.31054182056	1051
21	19	0.030820584801	1028
21	25	0.039324584801	1028
21	45	0.049891078249	1028
21	51	0.058395078249	1028
21	65	0.083479601676	1028
21	84	0.123258549035	1028
21	90	0.131762549035	1028
21	104	0.147888527705	1028
21	116	0.156920617065	1028
21	130	0.1669938113	1028
21	157	0.19817286033	1028
21	165	0.20667686033	1028
21	178	0.21518086033	1028
21	187	0.22368486033	1028
21	200	0.23218886033	1028
21	207	0.24069286033	1028
21	221	0.26439915813	1028
21	234	0.31054182056	1028
22	21	0.030820584801	1008
22	27	0.039324584801	1008
22	47	0.049891078249	1008
22	53	0.058395078249	1008
22	67	0.083479601676	1008
22	86	0.123258549035	1008
22	92	0.131762549035	1008
22	106	0.147888527705	1008
22	118	0.156920617065	1008
22	132	0.1669938113	1008
22	159	0.19817286033	1008
22	167	0.20667686033	1008
22	180	0.21518086033	1008
22	189	0.22368486033	1008
22	202	0.23218886033	1008
22	209	0.24069286033	1008
22	223	0.26439915813	1008
22	236	0.31054182056	1008
23	22	0.030820584801	1000
23	28	0.039324584801	1000
23	48	0.049891078249	1000
23	54	0.058395078249	1000
23	68	0.083479601676	1000
23	87	0.123258549035	1000
23	93	0.131762549035	1000
23	107	0.147888527705	1000
23	119	0.156920617065	1000
23	133	0.1669938113	1000
23	160	0.19817286033	1000
23	168	0.20667686033	1000
23	181	0.21518086033	1000
23	190	0.22368486033	1000
23	203	0.23218886033	1000
23	210	0.24069286033	1000
23	224	0.26439915813	1000
23	237	0.31054182056	1000
24	22	0.030820584801	0.008505334256
24	28	0.039324584801	0.010396752416
24	48	0.049891078249	0.008505334256
24	54	0.058395078249	0.010103103893
24	68	0.083479601676	0.008505334256
24	87	0.123258549035	0.008505334256
24	93	0.131762549035	0.011206108997
24	107	0.147888527705	0.008505334256
24	119	0.156920617065	0.008505334256
24	133	0.1669938113	0.008505334256
24	160	0.19817286033	0.008505334256
24	168	0.20667686033	0.01612510999
24	181	0.21518086033	0.023535177677
24	190	0.22368486033	0.031794070616
24	203	0.23218886033	0.018848218655
24	210	0.24069286033	0.009282807551
24	224	0.26439915813	0.008505334256
24	237	0.31054182056	0.008505334256
25	22	0.030820584801	0
25	28	0.039324584801	1
25	48	0.049891078249	2
25	54	0.058395078249	3
25	68	0.083479601676	4
25	87	0.123258549035	5
25	93	0.131762549035	6
25	107	0.147888527705	7
25	119	0.156920617065	8
25	133	0.1669938113	9
25	160	0.19817286033	10
25	168	0.20667686033	11
25	181	0.21518086033	12
25	190	0.22368486033	13
25	203	0.23218886033	14
25	210	0.24069286033	15
25	224	0.26439915813	16
25	237	0.31054182056	17
26	73	0.1	411200
26	173	0.2	740160
26	229	0.3	246720
27	73	0.1	411200
27	161	0.2	575680
27	229	0.3	411200
28	87	0.1	400000
28	168	0.2	480000
28	237	0.3	480000
vector 29 WirelessA.hostA.app[0] throughput:vector ETV
attr recordingmode vector
attr source throughput(packetReceived)
attr title throughput
attr unit bps
vector 30 WirelessA.hostB.wlan[0].queue outgoingDataRate:vector ETV
attr interpolationmode linear
attr recordingmode vector
attr source throughput(packetPulled)
attr title "outgoing datarate"
attr unit bps
vector 31 WirelessA.hostB.wlan[0].queue incomingDataRate:vector ETV
attr interpolationmode linear
attr recordingmode vector
attr source throughput(packetPushStarted)
attr title "incoming datarate"
attr unit bps
3	255	0.329804695245	19
3	261	0.338308695245	20
3	281	0.355430280449	21
3	297	0.363934280449	22
3	306	0.372438280449	23
3	313	0.380942280449	24
3	327	0.405787757756	25
3	345	0.414641685257	26
3	358	0.423145685257	27
3	365	0.431649685257	28
3	385	0.442614896035	29
3	391	0.451118896035	30
3	410	0.46000790158	31
3	423	0.46851190158	32
3	436	0.47701590158	33
3	443	0.48551990158	34
3	456	0.494650631533	35
3	470	0.529185611788	36
3	489	0.542927279244	37
3	501	0.551431279244	38
3	508	0.559935279244	39
3	527	0.569521183659	40
3	540	0.578025183659	41
3	547	0.586529183659	42
3	571	0.596780686104	43
3	587	0.605284686104	44
3	600	0.613788686104	45
3	613	0.622292686104	46
3	622	0.630796686104	47
3	631	0.639300686104	48
3	638	0.647804686104	49
3	666	0.681759266538	50
3	674	0.690263266538	51
3	691	0.698767266538	52
3	708	0.707271266538	53
3	725	0.715775266538	54
3	738	0.724279266538	55
3	755	0.732783266538	56
3	768	0.741287266538	57
3	777	0.749791266538	58
3	794	0.758295266538	59
3	803	0.766799266538	60
3	812	0.775303266538	61
3	829	0.783807266538	62
3	838	0.792311266538	63
3	847	0.800815266538	64
3	856	0.809319266538	65
3	865	0.817823266538	66
3	878	0.826327266538	67
3	891	0.834831266538	68
3	898	0.843335266538	69
3	912	0.883950620192	70
3	925	0.895092362155	71
3	952	0.911223305421	72
3	972	0.919727305421	73
3	989	0.928231305421	74
3	998	0.936735305421	75
3	1011	0.945239305421	76
3	1024	0.953743305421	77
3	1037	0.962247305421	78
3	1054	0.970751305421	79
3	1067	0.979255305421	80
3	1076	0.987759305421	81
3	1085	0.996263305421	82
3	1094	1.004767305421	83
3	1111	1.013271305421	84
3	1120	1.021775305421	85
3	1137	1.030279305421	86
3	1146	1.038783305421	87
3	1163	1.047287305421	88
3	1176	1.055791305421	89
3	1193	1.064295305421	90
3	1202	1.072799305421	91
3	1219	1.081303305421	92
3	1228	1.089807305421	93
3	1245	1.098311305421	94
3	1254	1.106815305421	95
3	1267	1.115319305421	96
3	1276	1.123823305421	97
3	1285	1.132327305421	98
3	1294	1.140831305421	99
3	1301	1.149335305421	100
3	1321	1.1606670019	101
3	1333	1.1691710019	102
3	1346	1.1776750019	103
3	1353	1.1861790019	104
3	1372	1.195349709372	105
3	1379	1.203853709372	106
3	1399	1.23500612917	107
3	1405	1.24351012917	108
3	1419	1.264599136057	109
3	1438	1.279025998864	110
3	1444	1.287529998864	111
3	1464	1.303433306918	112
3	1470	1.311937306918	113
3	1484	1.335047524644	114
3	1497	1.34549395456	115
3	1510	1.37111191996	116
3	1523	1.385264515164	117
3	1542	1.40076742639	118
3	1548	1.40927142639	119
3	1562	1.446622640213	120
3	1581	1.459016204341	121
3	1587	1.467520204341	122
3	1610	1.476821790788	123
3	1619	1.485325790788	124
3	1636	1.493829790788	125
3	1649	1.502333790788	126
3	1666	1.510837790788	127
3	1679	1.519341790788	128
3	1692	1.527845790788	129
3	1705	1.536349790788	130
3	1714	1.544853790788	131
3	1727	1.553357790788	132
3	1740	1.561861790788	133
3	1749	1.570365790788	134
3	1766	1.578869790788	135
3	1775	1.587373790788	136
3	1782	1.595877790788	137
3	1802	1.613167732765	138
3	1814	1.621671732765	139
3	1821	1.630175732765	140
3	1835	1.652234321876	141
3	1848	1.671925092811	142
3	1867	1.686529326755	143
3	1873	1.695033326755	144
3	1887	1.71802806404	145
3	1900	1.733059354339	146
3	1919	1.814244040578	147
3	1925	1.822748040578	148
3	1945	1.840497387424	149
3	1961	1.849001387424	150
3	1970	1.857505387424	151
3	1977	1.866009387424	152
3	1991	1.878290242567	153
3	2004	1.898050871783	154
3	2027	1.908153443324	155
3	2035	1.916657443324	156
3	2048	1.925161443324	157
3	2061	1.933665443324	158
3	2068	1.942169443324	159
3	2082	1.9522488504	160
3	2095	1.976402123234	161
3	2108	2.020921650337	162
3	2131	2.044160577187	163
3	2139	2.052664577187	164
3	2156	2.061168577187	165
3	2173	2.069672577187	166
3	2190	2.078176577187	167
3	2199	2.086680577187	168
3	2216	2.095184577187	169
3	2229	2.103688577187	170
3	2238	2.112192577187	171
3	2247	2.120696577187	172
3	2256	2.129200577187	173
3	2269	2.137704577187	174
3	2286	2.146208577187	175
3	2299	2.154712577187	176
3	2312	2.163216577187	177
3	2325	2.171720577187	178
3	2338	2.180224577187	179
3	2347	2.188728577187	180
3	2354	2.197232577187	181
3	2368	2.213766089405	182
3	2381	2.225188045896	183
3	2393	2.234393001751	184
3	2407	2.245089544674	185
3	2426	2.26080696913	186
3	2446	2.26931096913	187
3	2455	2.27781496913	188
3	2464	2.28631896913	189
3	2471	2.29482296913	190
3	2485	2.311355575119	191
3	2504	2.327499744318	192
3	2524	2.336003744318	193
3	2537	2.344507744318	194
3	2550	2.353011744318	195
3	2563	2.361515744318	196
3	2588	2.370019744318	197
3	2597	2.378523744318	198
3	2610	2.387027744318	199
3	2623	2.395531744318	200
3	2636	2.404035744318	201
3	2645	2.412539744318	202
3	2654	2.421043744318	203
3	2667	2.429547744318	204
3	2676	2.438051744318	205
3	2685	2.446555744318	206
3	2692	2.455059744318	207
3	2712	2.490804066665	208
3	2724	2.499308066665	209
3	2741	2.507812066665	210
3	2750	2.516316066665	211
3	2767	2.524820066665	212
3	2780	2.533324066665	213
3	2793	2.541828066665	214
3	2802	2.550332066665	215
3	2809	2.558836066665	216
3	2823	2.570174735208	217
3	2836	2.582072786723	218
3	2855	2.606802641614	219
3	2861	2.615306641614	220
3	2881	2.629834170774	221
3	2887	2.638338170774	222
3	2901	2.668936560034	223
3	2920	2.682893919435	224
3	2926	2.691397919435	225
3	2940	2.721140304688	226
3	2963	2.736890400604	227
3	2979	2.745394400604	228
3	2996	2.753898400604	229
3	3009	2.762402400604	230
3	3026	2.770906400604	231
3	3035	2.779410400604	232
3	3048	2.787914400604	233
3	3057	2.796418400604	234
3	3070	2.804922400604	235
3	3083	2.813426400604	236
3	3100	2.821930400604	237
3	3109	2.830434400604	238
3	3126	2.838938400604	239
3	3135	2.847442400604	240
3	3156	2.855946400604	241
3	3169	2.864450400604	242
3	3182	2.872954400604	243
3	3191	2.881458400604	244
3	3200	2.889962400604	245
3	3209	2.898466400604	246
3	3222	2.906970400604	247
3	3231	2.915474400604	248
3	3244	2.923978400604	249
3	3251	2.932482400604	250
3	3264	2.941883569675	251
3	3284	2.969969473203	252
3	3296	2.978473473203	253
3	3309	2.986977473203	254
3	3316	2.995481473203	255
3	3340	3.030416015109	256
3	3356	3.038920015109	257
3	3365	3.047424015109	258
3	3374	3.055928015109	259
3	3387	3.064432015109	260
3	3394	3.072936015109	261
3	3408	3.084467243817	262
3	3427	3.102921188391	263
3	3443	3.111425188391	264
3	3456	3.119929188391	265
3	3465	3.128433188391	266
3	3472	3.136937188391	267
3	3486	3.171785756024	268
3	3505	3.196884434895	269
3	3511	3.205388434895	270
3	3531	3.240944245022	271
3	3537	3.249448245022	272
3	3551	3.279893578482	273
3	3564	3.313933260803	274
3	3577	3.33319876596	275
3	3590	3.34514432968	276
3	3609	3.370029467237	277
3	3615	3.378533467237	278
3	3629	3.396871727259	279
3	3656	3.408415870378	280
3	3664	3.416919870378	281
3	3673	3.425423870378	282
3	3680	3.433927870378	283
3	3700	3.463713608052	284
3	3712	3.472217608052	285
3	3719	3.480721608052	286
3	3743	3.492020742957	287
3	3751	3.500524742957	288
3	3758	3.509028742957	289
3	3778	3.520024539775	290
3	3798	3.528528539775	291
3	3807	3.537032539775	292
3	3816	3.545536539775	293
3	3829	3.554040539775	294
3	3836	3.562544539775	295
3	3850	3.602517216107	296
3	3863	3.64139677171	297
3	3876	3.669841422677	298
3	3899	3.687690579729	299
3	3915	3.696194579729	300
3	3932	3.704698579729	301
3	3949	3.713202579729	302
3	3958	3.721706579729	303
3	3971	3.730210579729	304
3	3992	3.738714579729	305
3	4001	3.747218579729	306
3	4018	3.755722579729	307
3	4031	3.764226579729	308
3	4044	3.772730579729	309
3	4053	3.781234579729	310
3	4062	3.789738579729	311
3	4075	3.798242579729	312
3	4088	3.806746579729	313
3	4109	3.815250579729	314
3	4126	3.823754579729	315
3	4139	3.832258579729	316
3	4148	3.840762579729	317
3	4161	3.849266579729	318
3	4174	3.857770579729	319
3	4191	3.866274579729	320
3	4204	3.874778579729	321
3	4213	3.883282579729	322
3	4230	3.891786579729	323
3	4239	3.900290579729	324
3	4252	3.908794579729	325
3	4261	3.917298579729	326
3	4274	3.925802579729	327
3	4283	3.934306579729	328
3	4300	3.942810579729	329
3	4313	3.951314579729	330